118
 energy: -201.008922589913 gnorm: 0.595856067999 xtb: 6.6.0 (conda-forge)
Fe          -0.12686420587406       -0.26063717658594       -0.04496627135615
O           -2.00672964112442       -0.75202637098455        1.18820887079266
O            1.38150945608063        1.19743813577002        0.71175356674676
O            1.61425899195784       -0.64908470159621       -1.48925160847437
O           -1.25886625721143       -0.32375127491623       -2.10226425021708
O           -1.28587633281734        1.74895629095178       -0.19648556999689
O            1.00740572019214       -1.51564045940076        1.51865282539648
H           -2.26656454842601        1.72271408771725       -0.21940238074165
H           -1.01405328301457        2.49795801073965       -0.75943053062816
H            1.13072620416531       -1.05967541996158        2.39274530390714
H            1.90834349732261       -1.83015383526691        1.27333308020698
H           -2.58694328224023       -0.20202929273728        1.75231472621120
H           -2.54688450742473       -1.51162740004623        0.89007495068521
H            2.36004442258160        0.01227439595475       -1.47241617387233
H            2.03288813917157       -1.51123671644445       -1.67852366047218
H            1.56685993747248        2.07108364509404        0.29263085363903
H            2.23856715395684        0.91505741424016        1.13804895514413
H           -2.24000953103823       -0.45100348740301       -2.08886295360675
H           -0.91094082425098       -0.90880032931207       -2.78131781503534
O           -3.87783123891077        0.69945816694267        2.54356638808634
O            3.48305884668419       -2.24309869135298        0.78650675999583
O           -3.88610722216932       -0.59902997669673       -1.81866566847435
O           -0.52921886499217       -2.58351829534007       -0.54057859412759
O           -3.98963913663329        1.53841777166974       -0.09654620689976
O           -3.19749341349763       -2.70823089864868       -0.21368089599565
O            1.59132218509602       -0.17736895542731        3.68091466523665
O            3.63215679004909        0.36287878241820        1.74488744693706
O            1.98932044084267        3.38507583822912       -0.65152770452875
O           -0.51078364099050        3.93878335291121       -1.72251224051657
O            3.51953871976320        1.14213025686402       -1.37999351697470
O            3.12210017199768       -2.91253563008061       -1.88569854935468
H           -3.63744168662120       -2.14266837846184       -0.87383352186315
H           -3.74810197398942       -3.48676686852755       -0.08475601368600
H           -4.58632611024341        0.18989595537171        2.95298499710011
H           -3.59509657554854        1.33994360645570        3.20503563875677
H           -4.58289366982563        2.27758040703954       -0.26346369137870
H           -4.10362892499756        1.29428690114758        0.84056750238046
H           -0.86674286763155        4.79210347075500       -1.45024368799319
H           -0.57271352448716        3.91553399979991       -2.68330197795434
H           -4.49409252295397       -0.55691547129916       -2.56346306591845
H           -4.07705851104879        0.16657983544298       -1.24250060517920
H           -1.48845667851315       -2.79416176127243       -0.52610375596219
H           -0.12711259400208       -3.15593025223967        0.12078864562093
H            3.86306608232975       -2.78673851289635       -2.48887452146831
H            2.74732355110842       -3.77234991578676       -2.10324720182833
H            4.16190143252909        1.20612990210410       -2.09222380672163
H            3.12847320950147        2.02374298212465       -1.27255257905595
H            2.38538591249868        4.16332770915692       -0.24738509680342
H            1.17334186726271        3.67592421672651       -1.09702058281278
H            4.42595216468946        0.88563057683267        1.60260577214954
H            3.79688596671517       -0.51871206863283        1.37000507351026
H            1.55217741941718       -0.42384504010555        4.60960637692925
H            2.46564070078256        0.19631952962749        3.51174521810349
H            3.95501755949141       -2.91258292317854        1.29154075801445
H            3.48627502691075       -2.53279513755863       -0.14309367565245
O            2.16355783672172        0.00138745454412        6.65110903030302
H            3.06355783672172        0.00138745454412        6.65110903030302
H            1.87054649771028        0.85235417258350        6.65110903030302
O           -2.62943820793197       -2.43412743749406        5.98444236363636
H           -1.72943820793197       -2.43412743749406        5.98444236363636
H           -2.92244954694341       -1.58316071945468        5.98444236363636
O            0.42555589639163        4.51785113253720        5.31777569696969
H            1.32555589639163        4.51785113253720        5.31777569696969
H            0.13254455738019        5.36881785057658        5.31777569696969
O            3.20370794861375       -4.13921807484987        4.65110903030303
H            4.10370794861375       -4.13921807484987        4.65110903030303
H            2.91069660960231       -3.28825135681049        4.65110903030303
O           -5.62756521437451        1.00198658039427        3.98444236363636
H           -4.72756521437451        1.00198658039427        3.98444236363636
H           -5.92057655338595        1.85295329843366        3.98444236363636
O            5.22283030174730        3.30516068197042        3.31777569696969
H            6.12283030174730        3.30516068197042        3.31777569696969
H            4.92981896273586        4.15612740000981        3.31777569696969
O           -1.65101818544198       -6.24887754462444        2.65110903030303
H           -0.75101818544198       -6.24887754462444        2.65110903030303
H           -1.94402952445342       -5.39791082658505        2.65110903030303
O           -3.06267522478802        5.95457249749753        1.98444236363636
H           -2.16267522478802        5.95457249749753        1.98444236363636
H           -3.35568656379946        6.80553921553692        1.98444236363636
O            6.48405129280483       -2.35592006005791        1.31777569696969
H            7.38405129280483       -2.35592006005791        1.31777569696969
H            6.19103995379339       -1.50495334201853        1.31777569696969
O           -6.41182465482195       -2.65736691074928        0.65110903030303
H           -5.51182465482195       -2.65736691074928        0.65110903030303
H           -6.70483599383339       -1.80640019270989        0.65110903030303
O            2.99610505624622        6.34152736243338       -0.01555763636364
H            3.89610505624622        6.34152736243338       -0.01555763636364
H            2.70309371723478        7.19249408047276       -0.01555763636364
O            2.11464742431073       -6.64740146297103       -0.68222430303031
H            3.01464742431073       -6.64740146297103       -0.68222430303031
H            1.82163608529929       -5.79643474493164       -0.68222430303031
O           -5.91641225289088        3.44698148605542       -1.34889096969697
H           -5.01641225289088        3.44698148605542       -1.34889096969697
H           -6.20942359190232        4.29794820409481       -1.34889096969697
O            6.58092335634019        1.44176917282257       -2.01555763636364
H            7.48092335634019        1.44176917282257       -2.01555763636364
H            6.28791201732875        2.29273589086195       -2.01555763636364
O           -3.69314809799347       -5.29324562141116       -2.68222430303031
H           -2.79314809799347       -5.29324562141116       -2.68222430303031
H           -3.98615943700491       -4.44227890337177       -2.68222430303031
O           -0.76185097991597        6.10574278395280       -3.34889096969698
H            0.13814902008403        6.10574278395280       -3.34889096969698
H           -1.05486231892741        6.95670950199218       -3.34889096969698
O            4.42175714792033       -3.70067861100450       -4.01555763636364
H            5.32175714792033       -3.70067861100450       -4.01555763636364
H            4.12874580890889       -2.84971189296511       -4.01555763636364
O           -5.18385340024814       -0.21418797092887       -4.68222430303031
H           -4.28385340024814       -0.21418797092887       -4.68222430303031
H           -5.47686473925958        0.63677874711052       -4.68222430303031
O            3.24289054903488        3.19945561034584       -5.34889096969698
H            4.14289054903488        3.19945561034584       -5.34889096969698
H            2.94987921002344        4.05042232838522       -5.34889096969698
O           -0.13736253591507       -3.60031527530258       -6.01555763636364
H            0.76263746408493       -3.60031527530258       -6.01555763636364
H           -0.43037387492651       -2.74934855726320       -6.01555763636364
O           -1.33833032750982        1.64012556845835       -6.68222430303031
H           -0.43833032750982        1.64012556845835       -6.68222430303031
H           -1.63134166652126        2.49109228649773       -6.68222430303031
118
 energy: -201.199948583013 gnorm: 0.267795156135 xtb: 6.6.0 (conda-forge)
Fe          -0.13449470680878       -0.26359377731258       -0.04974700281550
O           -2.01050508237560       -0.76476683652415        1.21443804690835
O            1.38590810312169        1.22043828690857        0.73686199436569
O            1.62156157380558       -0.64878093672061       -1.52537025845144
O           -1.26434855601289       -0.30435393265690       -2.13648924885316
O           -1.29122075030079        1.77480212495484       -0.18133986585805
O            1.00641363237346       -1.55490683834829        1.54490681755509
H           -2.26960019659379        1.71318595312028       -0.22287469653278
H           -1.01147856390578        2.49860126425551       -0.76523836701552
H            1.12677563160161       -1.05400802154213        2.38065709201117
H            1.90830177278494       -1.82049399276954        1.26890133037911
H           -2.59215428059719       -0.19352123323529        1.74898462547037
H           -2.54627173036677       -1.51153249390109        0.88255662726561
H            2.35419791633454        0.00735146316181       -1.46324853790842
H            2.03532415646659       -1.51364332282196       -1.67010564123026
H            1.56764417153094        2.06745520086657        0.28985883183995
H            2.23345440037378        0.91518214634861        1.13362037541430
H           -2.23785935724918       -0.45808636778258       -2.07950302981259
H           -0.90631546241339       -0.91907129018970       -2.78011350453947
O           -3.85379354075264        0.69150685965007        2.51495793288141
O            3.50022326767353       -2.23930227791928        0.78962775061769
O           -3.89980627660857       -0.61398465980884       -1.81943995978186
O           -0.52169919970731       -2.62216018212162       -0.56942704770888
O           -3.99795101314127        1.53245479681593       -0.10533970647135
O           -3.20396967677469       -2.71994233505240       -0.21015565550390
O            1.59188906700407       -0.17273229903928        3.69381659702937
O            3.64852959037246        0.36023213703482        1.76794136539099
O            2.00439330773998        3.39671784940944       -0.66621161307285
O           -0.50347471269615        3.94402527298192       -1.72310716408134
O            3.53755654517354        1.14846296435154       -1.37558293645000
O            3.12325378243679       -2.91817387677282       -1.87146318480286
H           -3.63352159531737       -2.12479563406142       -0.88239267854713
H           -3.76178596799543       -3.50942892386808       -0.08424749100486
H           -4.57968775474446        0.16802076656216        2.92164021603083
H           -3.56511309910143        1.34880271422179        3.18998875812424
H           -4.60003072116943        2.28960637586202       -0.26791171342020
H           -4.09003614869942        1.27788544920767        0.85482930341208
H           -0.87159993528669        4.79622719833838       -1.44977677071196
H           -0.57689570455039        3.91122801422915       -2.68681449780896
H           -4.50739597957755       -0.55813976155075       -2.58072806731873
H           -4.06549477369335        0.17597552950467       -1.22749857788147
H           -1.48994120650639       -2.78313041107051       -0.51898280810938
H           -0.12339331505137       -3.14851376197522        0.13172383957545
H            3.86802338267304       -2.78640737917967       -2.47872427340362
H            2.74041545078390       -3.77562278309564       -2.10295228569666
H            4.16889260559313        1.20928976107552       -2.09979538684763
H            3.11800460429009        2.02427111551861       -1.26803120284764
H            2.38446664670038        4.17787469857335       -0.24266532243482
H            1.16316436046685        3.66897798653985       -1.09560994748758
H            4.43486853619326        0.89321934564594        1.59706648699293
H            3.78666487177447       -0.52530548089340        1.36250103505011
H            1.55740030039578       -0.42119429090929        4.62387896865799
H            2.46720674329764        0.19930834412370        3.50372128007062
H            3.96312527461447       -2.92048910848611        1.29644897260943
H            3.47853287573262       -2.52808306715128       -0.15101253347153
O            2.14879280295664       -0.00451246686995        6.64785004003638
H            3.08957344834013       -0.02588809149053        6.65357863047505
H            1.85905231916546        0.88606412279997        6.65160304047258
O           -2.64512444263716       -2.44054250728753        5.98904393618008
H           -1.70445811660907       -2.46526728321591        5.98270373956365
H           -2.93111349871242       -1.54947822195224        5.98459184028720
O            0.40876538618194        4.51388241556924        5.32174759412242
H            1.34892692165989        4.48817559957892        5.31563339138806
H            0.12184222430888        5.40456053706995        5.31911012690484
O            3.18981108492837       -4.14464073371081        4.65189934976008
H            4.13036857178587       -4.16787957534258        4.65199945907962
H            2.89996729427744       -3.25412015711305        4.64957603540371
O           -5.67541165923939        1.00389901067015        4.04838984773137
H           -4.72585504931182        0.98300645966387        4.00678781611546
H           -5.95180705686776        1.89563600841890        3.98606985243191
O            5.20898000797846        3.30102274897098        3.31830456475176
H            6.14911064255462        3.27703084763986        3.31871358651864
H            4.92017019089990        4.19092060945459        3.31877882854536
O           -1.66559206460374       -6.25569392517247        2.65142636370997
H           -0.72489534447405       -6.27899585293381        2.65289667788320
H           -1.95261259560473       -5.36438629628007        2.65184388524194
O           -3.08068168265206        5.95049685902316        1.98431061760471
H           -2.14005583559969        5.92203401191342        1.98453969547915
H           -3.36681302030188        6.84157843348147        1.98460887625528
O            6.47029380494062       -2.36129879420692        1.31987711014989
H            7.41053823985820       -2.38298672011422        1.31723924850763
H            6.17973065704188       -1.46993755304936        1.31686957853155
O           -6.42718877797102       -2.66506311736275        0.65093884242724
H           -5.48219546701411       -2.68500649732178        0.65100931834681
H           -6.71550637658296       -1.77379090578646        0.65055818922848
O            2.98080033720746        6.33618049598641       -0.01644443791775
H            3.92098306821272        6.31474542087813       -0.01731027384544
H            2.69105538527594        7.22680173208287       -0.01379524223564
O            2.10123985664086       -6.65242908957442       -0.68436629489468
H            3.04202820852459       -6.67717793556858       -0.68127376697192
H            1.81286877199875       -5.76109399623165       -0.68217362641064
O           -5.93577998389611        3.44392969586529       -1.35416539033432
H           -4.98883811788388        3.41753318752365       -1.34932662831433
H           -6.22320780106921        4.33533254572547       -1.34934587365084
O            6.56581495275798        1.43892383851386       -2.02005586907861
H            7.50620129376416        1.41326038549690       -2.01491503663230
H            6.27913561570929        2.33002672120149       -2.01219955403517
O           -3.70778982105782       -5.30006615185106       -2.68111232360061
H           -2.76671212123462       -5.32310870314982       -2.68228694760372
H           -3.99432773753321       -4.40795748776689       -2.68336783045520
O           -0.77884722288916        6.10358177381171       -3.35145890171478
H            0.16184687778740        6.07855901917341       -3.34902205603644
H           -1.06733302306776        6.99346207616841       -3.35003929350752
O            4.41360610785471       -3.70696054508309       -4.03757961599314
H            5.35320719065600       -3.72817922842781       -4.01718799289989
H            4.12137360541334       -2.81417183757965       -4.02057834716379
O           -5.19927637511229       -0.22104416464025       -4.68043956092918
H           -4.25722677333659       -0.24458240943161       -4.68207667689815
H           -5.48705605691356        0.67051214415741       -4.68410842977011
O            3.22800315227787        3.19562371323362       -5.35035772410557
H            4.16790432897195        3.17005858637690       -5.35133414294776
H            2.94100729458535        4.08625047760637       -5.34990372594739
O           -0.15225557240919       -3.60627015189311       -6.01891209371020
H            0.78816182045546       -3.63063589581418       -6.01548041085886
H           -0.44011526474110       -2.71556043987468       -6.01538632360878
O           -1.35438680253116        1.63516438415119       -6.68643715772527
H           -0.41371114335550        1.60981646635278       -6.68028524188049
H           -1.64186485731870        2.52599322864151       -6.68260165213626
118
 energy: -201.288028197146 gnorm: 0.141138621988 xtb: 6.6.0 (conda-forge)
Fe          -0.14707337535326       -0.27269729805286       -0.05881738279439
O           -2.00695365564993       -0.79633371787246        1.26446301684125
O            1.39149603397176        1.25016602722042        0.77473442411110
O            1.62995650238824       -0.64677722315773       -1.58079213525403
O           -1.27421391756410       -0.26390719674974       -2.19517798073842
O           -1.29749327364003        1.81643594286490       -0.15211406474853
O            1.00440092006616       -1.61514720169190        1.57861137306974
H           -2.27193367315609        1.69667344164004       -0.22788665669840
H           -1.01493677765498        2.49740496111668       -0.77485669386432
H            1.11785816223373       -1.04937278420790        2.36165017056614
H            1.90642651579094       -1.80872380222328        1.26667732110028
H           -2.60478192891300       -0.17199982148642        1.73375796250620
H           -2.54836690192451       -1.50793260096475        0.86837155088918
H            2.34759853723929       -0.00131981617985       -1.45329840961387
H            2.03777038069204       -1.51427233565021       -1.65850186878896
H            1.57084844328376        2.06081097332997        0.28904263568376
H            2.22904290047466        0.91882064722768        1.12775791744455
H           -2.23304787055574       -0.46993402293474       -2.06341222717986
H           -0.90261040316134       -0.93825541981269       -2.77253028988844
O           -3.83126219614526        0.69509987994615        2.46706515871215
O            3.52845042865399       -2.23487417810152        0.78989278632885
O           -3.92736904096520       -0.63906889587603       -1.81794333947627
O           -0.50977756747594       -2.68720055915297       -0.62186875088321
O           -4.01678505381128        1.51695231050872       -0.12671267701922
O           -3.21904229681904       -2.73915033061878       -0.20744373930680
O            1.59444288221138       -0.16622658806193        3.71426031939208
O            3.67622581406908        0.34871254027573        1.80253865862273
O            2.02860938211986        3.41692360606449       -0.69292038084618
O           -0.48346810111996        3.95699804712623       -1.72569872106308
O            3.56808437709090        1.15940772058688       -1.36375005249718
O            3.12645566798307       -2.93304437752478       -1.84563758176243
H           -3.62531309190553       -2.09489460179832       -0.88877415633951
H           -3.78858875490705       -3.53697403473414       -0.09091898453112
H           -4.57349081596933        0.12408322355707        2.87752785412857
H           -3.51820798395092        1.37840987453683        3.18794269798780
H           -4.62679976674605        2.32208669380130       -0.28389770624147
H           -4.05104098935894        1.24066786488602        0.88435615006573
H           -0.87582127328641        4.79657791152293       -1.45576122374549
H           -0.58420538692680        3.90655917139726       -2.68442905644557
H           -4.52686609610141       -0.55416984047407       -2.60359640833514
H           -4.03848984416042        0.19343656318641       -1.20248955827141
H           -1.48930514204869       -2.76206001397531       -0.50444251442113
H           -0.12551962651501       -3.12975747756107        0.15107931421745
H            3.86768239997436       -2.79661533283044       -2.45297918995637
H            2.73192162197980       -3.77343789586363       -2.10175988867601
H            4.17311503463275        1.21688840167627       -2.10656687941701
H            3.10838239914000        2.01483487658757       -1.26806873124007
H            2.37296364874195        4.19676683596392       -0.24124496394949
H            1.16033247357406        3.65713103503166       -1.08644367991559
H            4.44091844555997        0.89017282411300        1.58424592806880
H            3.77480531871689       -0.52173241348406        1.35389934800336
H            1.57194245658975       -0.41186897029646        4.64348279450937
H            2.46366762713479        0.19996359023103        3.49633304288097
H            3.96891997521122       -2.92831008645712        1.29032855945157
H            3.46871304143383       -2.52351809430838       -0.14638759962097
O            2.14782768545502       -0.02450591961962        6.63526830450985
H            3.11190471432095       -0.01100000172387        6.65927408619442
H            1.83811768376616        0.88740803185337        6.65721794225214
O           -2.64980195164498       -2.45882692494383        6.00066983810611
H           -1.68590052730272       -2.45496890322794        5.97968666691031
H           -2.94826805111625       -1.54441382338321        5.98295174437364
O            0.40656806611175        4.49783332817625        5.33123809918150
H            1.36942421831622        4.50134507672215        5.31035368205323
H            0.10501827338170        5.41126810596798        5.32169287524597
O            3.18804388544183       -4.16529675858295        4.65263350602695
H            4.15160142708618       -4.15444581506322        4.65426456835073
H            2.87739409865245       -3.25346230055487        4.64668569212876
O           -5.73557314012082        1.00567577313774        4.11234562533351
H           -4.73042669609793        0.98820630737639        4.07322416140097
H           -5.99878819608194        1.93160240840649        3.97793850565849
O            5.21198360450739        3.28167503027315        3.31836687485703
H            6.17467368501833        3.28978853190187        3.32082443490611
H            4.90488907889889        4.19290158122214        3.32206311301198
O           -1.67043041533060       -6.27536599438428        2.65191922172213
H           -0.70644951929299       -6.26784788314428        2.65755658612573
H           -1.97169395974650       -5.36083815705856        2.65237396847618
O           -3.08539132647714        5.93678008090831        1.98344985259448
H           -2.12185392037319        5.93090904164122        1.98527517416381
H           -3.38315108813154        6.85183885998154        1.98514682385880
O            6.46833722782572       -2.38116026884126        1.32311536876105
H            7.43101171026171       -2.37320938537046        1.31625156861890
H            6.16117185905253       -1.46740176906457        1.31611100318877
O           -6.42966472226843       -2.68186651491704        0.64899967253948
H           -5.45439467549102       -2.66769047493522        0.65032742143744
H           -6.73432516519058       -1.76705772638759        0.65035873291533
O            2.98197025057033        6.31695338689957       -0.01806976901518
H            3.94487097462841        6.32970620362128       -0.02148725584770
H            2.67301924680657        7.22901289817851       -0.01040400107610
O            2.09859433461210       -6.67104215607407       -0.69042434856513
H            3.06253273039311       -6.66599600943329       -0.67904260888593
H            1.79322273251038       -5.75699045993539       -0.68112265044263
O           -5.95233839005329        3.43695799571455       -1.36063948101600
H           -4.96115258784653        3.41656405388984       -1.35066174807027
H           -6.24591321954897        4.35850126591599       -1.34786395684049
O            6.56377458436100        1.42327931685935       -2.03080398533348
H            7.52673904571502        1.42106603843575       -2.01342632780094
H            6.26676018294410        2.33832773549109       -2.00480971667424
O           -3.71267701725948       -5.31721879326575       -2.67859340831020
H           -2.74786099445742       -5.31195485975187       -2.68284641726379
H           -4.01072281254190       -4.40027787159773       -2.68426961670285
O           -0.78118151282306        6.09234201302714       -3.35229774560971
H            0.18246865348248        6.09663545157078       -3.35257229903917
H           -1.08675393945837        7.00360088915364       -3.35313683702056
O            4.41860602949153       -3.72267474065494       -4.03689203744053
H            5.38053233300303       -3.72108086279035       -4.02179752745530
H            4.11165618696176       -2.80642998975539       -4.07189136281236
O           -5.20233780935447       -0.23789522869327       -4.66770672642730
H           -4.23497377978626       -0.23284429004803       -4.68812373771512
H           -5.50477930359334        0.67748064653354       -4.68916292166010
O            3.22819122472614        3.17824599501877       -5.35285591852983
H            4.19039707940034        3.18123770398077       -5.35728805742459
H            2.92701982277314        4.09167942895578       -5.35320394945331
O           -0.15607773655642       -3.62615384297223       -6.02633753462974
H            0.80723572398086       -3.61952534561944       -6.01586447952749
H           -0.46048811277484       -2.71314926816867       -6.01512182978708
O           -1.35712246018890        1.61879617234678       -6.69665316887127
H           -0.39338999742217        1.62273798901174       -6.67615081430402
H           -1.66046684554458        2.53210212909850       -6.68275945731367
118
 energy: -201.338850377807 gnorm: 0.176609477832 xtb: 6.6.0 (conda-forge)
Fe          -0.15220033369207       -0.28693033381846       -0.07230413572098
O           -1.99536582249308       -0.84346368946554        1.32600764451408
O            1.38588273567825        1.28250054921012        0.82767350062841
O            1.63063488782322       -0.63816579755436       -1.66011000537639
O           -1.28961342283216       -0.21595787273681       -2.25904042356077
O           -1.30868942297162        1.85645460431660       -0.11256961283484
O            0.99682345619756       -1.68882433863998        1.60912916341117
H           -2.27195822947648        1.68756538302845       -0.22802452056038
H           -1.02572599851327        2.48962667965548       -0.78585927999929
H            1.09725435156184       -1.04463251662280        2.34091233169152
H            1.90782594374212       -1.79796856438052        1.26619686946600
H           -2.61762747080269       -0.15437280801917        1.70408539514482
H           -2.55215536708436       -1.50181863889310        0.86736428934852
H            2.34696834764403       -0.00773676839437       -1.43870097526406
H            2.04126594251107       -1.51814283393520       -1.63843550286507
H            1.57563973287591        2.05658366822138        0.28302128997672
H            2.23070080885086        0.92239323065701        1.12951032032024
H           -2.22412366979728       -0.47591667012617       -2.06181678640742
H           -0.90078968185856       -0.96000563917195       -2.75288253316908
O           -3.84349197865439        0.72635741330762        2.40139581719370
O            3.56411491844749       -2.22360375733434        0.79009750140791
O           -3.95273615715795       -0.65625052799610       -1.80963868698349
O           -0.50527820531195       -2.74685898696921       -0.67044041279471
O           -4.04620178651112        1.48334786532187       -0.15757387758493
O           -3.24313037682785       -2.75325860974651       -0.21374308608918
O            1.59625230667793       -0.16016380521708        3.73760268102232