52
cyanide_solvated_1_Oxidized_Structure.log	Energy: -1766279.6829027
Fe         0.00989       -0.03299       -0.01522
C          1.35004        0.79919       -1.22968
C          0.47189       -1.83002       -0.73673
C          1.40451       -0.23638        1.38435
C         -1.33027       -0.86476        1.19945
C         -0.45181        1.76426        0.70609
C         -1.38474        0.17038       -1.41478
N          2.13831        1.28896       -1.94381
N          0.74368       -2.88699       -1.16113
N          2.22763       -0.35638        2.21030
N         -2.11858       -1.35324        1.91447
N         -0.72317        2.82145        1.13025
N         -2.20777        0.29039       -2.24080
O         -4.18782        1.01411       -1.75201
H         -4.75828        1.31198       -1.12285
H         -3.74370        1.71512       -2.10036
O         -1.75981       -2.26882       -3.70326
H         -2.33028       -1.97094       -3.07410
H         -1.31570       -1.56781       -4.05161
O         -1.12297        3.80856       -2.40151
H         -1.69344        4.10643       -1.77235
H         -0.67886        4.50956       -2.74986
O         -4.11223       -2.05100        0.80231
H         -4.68269       -1.75313        1.43147
H         -3.66811       -1.34999        0.45396
O          1.99279       -0.60278       -4.19579
H          1.42233       -0.30490       -3.56662
H          2.43691        0.09823       -4.54414
O         -2.21309        3.64768        1.78656
H         -2.78355        3.94556        2.41572
H         -1.76898        4.34869        1.43820
O         -0.58995       -4.65518       -0.10193
H         -1.16041       -4.35730        0.52723
H         -0.14584       -3.95417       -0.45028
O          3.10723        3.02244       -1.69048
H          2.53677        3.32031       -1.06132
H          3.55135        3.72344       -2.03883
O         -2.07266       -0.23180        4.15101
H         -2.64312        0.06607        4.78017
H         -1.62854        0.46921        3.80266
O          3.48454       -3.00451       -0.92631
H          2.91408       -2.70664       -0.29715
H          3.92866       -2.30350       -1.27466
O          2.07421        3.30150        2.50585
H          1.50375        3.59937        3.13501
H          2.51833        4.00251        2.15749
O          1.13288       -2.78094        3.57937
H          0.56242       -2.48306        4.20853
H          1.57699       -2.07993        3.23102
O          4.32756       -0.15659        1.73899
H          3.75710        0.14128        2.36815
H          4.77168        0.54441        1.39064
