19
Fe_3_M08-HX.log	Energy: -1080323.3727551
Fe         0.00004       -0.00001        0.00001
O         -0.97470       -1.51004        0.95884
H         -1.53640       -1.42306        1.74796
O          1.62647       -0.29338        1.19074
H          2.46132        0.20436        1.15813
O          0.74465       -1.33554       -1.34568
H          0.32898       -1.60056       -2.18402
O          0.97489        1.51007       -0.95859
H          0.96371        2.45072       -0.71187
O         -1.62646        0.29324       -1.19071
H         -2.46100       -0.20522       -1.15860
O         -0.74493        1.33567        1.34539
H         -0.32945        1.60115        2.18367
H         -1.58158        1.82536        1.26767
H          1.71146       -0.95749        1.89610
H         -0.96305       -2.45081        0.71259
H         -1.71181        0.95794       -1.89555
H          1.58116       -1.82552       -1.26826
H          1.53626        1.42326       -1.74798
