19
Fe_3_BMK.log	Energy: -1079984.2798283
Fe         0.00002        0.00003        0.00001
O          0.43944        1.93274       -0.43676
H          1.10799        2.48609        0.00430
O         -1.39629        0.61954        1.33637
H         -1.96196        0.04864        1.88599
O         -1.40707       -0.01136       -1.46254
H         -1.26821       -0.25351       -2.39523
O         -0.43931       -1.93266        0.43684
H         -0.01954       -2.47845        1.12585
O          1.39619       -0.61933       -1.33658
H          1.96233       -0.04856       -1.88577
O          1.40696        0.01096        1.46269
H          1.26815        0.25368        2.39523
H          2.34596       -0.22533        1.36142
H         -1.62357        1.54238        1.54754
H          0.02090        2.47819       -1.12605
H          1.62294       -1.54223       -1.54816
H         -2.34609        0.22485       -1.36116
H         -1.10868       -2.48581       -0.00430
