19
Fe_3_X3LYP.log	Energy: -1080323.3988657
Fe         0.00004        0.00002       -0.00002
O         -1.43034        0.13332       -1.45435
H         -2.35402       -0.17521       -1.38752
O          0.56026       -1.82991       -0.71846
H          1.26901       -2.39913       -0.36276
O          1.34922        0.90113       -1.24357
H          1.51565        1.85997       -1.31972
O          1.43005       -0.13341        1.45463
H          1.31629       -0.51763        2.34475
O         -0.56009        1.83004        0.71826
H         -1.26846        2.39947        0.36219
O         -1.34918       -0.90121        1.24350
H         -1.51560       -1.86005        1.31956
H         -1.94660       -0.45287        1.87192
H          0.16898       -2.29704       -1.48105
H         -1.31682        0.51696       -2.34478
H         -0.16920        2.29697        1.48121
H          1.94668        0.45271       -1.87191
H          2.35363        0.17562        1.38853
