19
Fe_3_TPSSh.log	Energy: -1080452.9102940
Fe        -0.00004       -0.00002        0.00050
O          0.42888       -1.68814        1.06378
H          0.91529       -1.73350        1.91101
O          1.76072       -0.18667       -1.01501
H          2.09614        0.41477       -1.70944
O         -0.93567       -1.13535       -1.41427
H         -1.88046       -1.38773       -1.42503
O         -0.43471        1.68572       -1.06515
H         -0.20225        2.60375       -0.82094
O         -1.76004        0.19360        1.01515
H         -2.09200       -0.39628        1.72111
O          0.94094        1.13092        1.41456
H          1.88783        1.37530        1.42532
H          0.53071        1.52902        2.20809
H          2.42705       -0.89290       -0.89795
H          0.18538       -2.60369        0.82103
H         -2.42971        0.89453        0.88553
H         -0.52232       -1.52930       -2.20825
H         -0.91539        1.72599       -1.91590
