19
Fe_3_n12.log	Energy: -1080520.0007576
Fe        -0.00006        0.00007        0.00007
O         -1.40731       -0.33711       -1.42531
H         -1.24110       -0.59718       -2.34116
O          0.07775        1.95680       -0.53968
H          0.63962        2.63645       -0.14419
O         -1.46234        0.42920        1.34287
H         -1.90347       -0.20118        1.92772
O          1.40912        0.33760        1.42348
H          2.36602        0.26768        1.30735
O         -0.07894       -1.95624        0.54152
H         -0.64277       -2.63548        0.14802
O          1.46186       -0.43038       -1.34299
H          1.90393        0.19935       -1.92785
H          1.84171       -1.30259       -1.51335
H         -0.44037        2.37743       -1.23873
H         -2.36444       -0.26642       -1.31153
H          0.43995       -2.37683        1.23993
H         -1.84355        1.30082        1.51314
H          1.24493        0.59711        2.33986
