19
Fe_3_M06-2X.log	Energy: -1080326.4095307
Fe        -0.00001       -0.00000       -0.00000
O         -1.33494        1.04642       -1.11681
H         -2.29896        0.90510       -1.14987
O          0.24565       -1.31659       -1.52640
H          0.83083       -2.09631       -1.52972
O          1.51084        1.13857       -0.73872
H          1.84597        1.97220       -0.36038
O          1.33495       -1.04637        1.11684
H          1.13170       -1.78318        1.72201
O         -0.24565        1.31658        1.52640
H         -0.83279        2.09481        1.53069
O         -1.51084       -1.13861        0.73869
H         -1.84679       -1.97157        0.35962
H         -2.03623       -0.95465        1.53902
H         -0.20001       -1.28811       -2.39300
H         -1.13175        1.78378       -1.72134
H          0.20200        1.28958        2.39202
H          2.03707        0.95392       -1.53833
H          2.29907       -0.90555        1.14926
