19
Fe_3_CAM-B3LYP.log	Energy: -1080407.0583717
Fe         0.00001        0.00002       -0.00003
O         -0.96685       -0.91223        1.53299
H         -1.62279       -1.63051        1.45634
O         -1.48934        1.37278       -0.12182
H         -1.53880        2.11731       -0.75066
O          0.98268        1.18322        1.32341
H          1.83943        0.98771        1.74748
O          0.96688        0.91220       -1.53301
H          0.86140        0.71313       -2.48240
O          1.48911       -1.37297        0.12220
H          1.53797       -2.11755        0.75109
O         -0.98251       -1.18305       -1.32370
H         -1.83926       -0.98759       -1.74777
H         -0.68509       -2.05199       -1.65323
H         -2.28785        1.40974        0.43784
H         -0.86130       -0.71328        2.48238
H          2.28799       -1.41012       -0.43705
H          0.68541        2.05228        1.65275
H          1.62275        1.63057       -1.45641
