19
Fe_3_O3LYP.log	Energy: -1080471.0305273
Fe         0.00016        0.00002        0.00009
O         -1.45246        0.04667        1.46833
H         -1.47837       -0.49600        2.27533
O         -1.07372       -1.44349       -1.01539
H         -0.82616       -1.86516       -1.85658
O         -1.00362        1.47740       -1.03820
H         -0.87974        2.43787       -0.94407
O          1.45183       -0.04441       -1.46901
H          2.23814       -0.61711       -1.48956
O          1.07405        1.44223        1.01721
H          0.82461        1.86529        1.85713
O          1.00354       -1.47847        1.03681
H          0.87677       -2.43863        0.94360
H          1.69264       -1.34780        1.71114
H         -1.92362       -1.83124       -0.74336
H         -2.24039        0.61674        1.48525
H          1.92605        1.82731        0.74809
H         -1.69028        1.34522       -1.71473
H          1.47928        0.50356       -2.27255
