19
Fe_3_OPBE.log	Energy: -1080462.7718626
Fe        -0.00005        0.00001        0.00003
O          1.34952        0.02733        1.57729
H          1.42401        0.71067        2.26742
O          1.35567        1.04177       -1.17766
H          1.22756        1.32369       -2.10118
O          0.80739       -1.79547       -0.65912
H          0.52338       -2.69068       -0.40080
O         -1.34972       -0.02820       -1.57710
H         -2.03180        0.63960       -1.77097
O         -1.35569       -1.04131        1.17807
H         -1.22776       -1.32226        2.10190
O         -0.80706        1.79587        0.65847
H         -0.52249        2.69081        0.39984
H         -1.54347        1.90730        1.28621
H          2.24337        1.34376       -0.91389
H          2.03089       -0.64118        1.77123
H         -2.24321       -1.34385        0.91436
H          1.54360       -1.90623       -1.28723
H         -1.42378       -0.71177       -2.26706
