19
Fe_3_B3LYP.log	Energy: -1080476.6126758
Fe         0.00007        0.00004        0.00004
O         -1.60323       -0.34615       -1.21837
H         -2.21872       -1.10226       -1.16356
O          1.19507       -1.06353       -1.27095
H          2.15089       -1.23121       -1.16228
O          0.41978        1.71011       -1.03639
H          0.07910        2.60393       -0.84009
O          1.60311        0.34576        1.21872
H          1.89587       -0.21490        1.96268
O         -1.19604        1.06370        1.26989
H         -2.15138        1.23264        1.15901
O         -0.41882       -1.70995        1.03701
H         -0.07681       -2.60347        0.84163
H         -0.99786       -1.78483        1.81971
H          0.91585       -1.49817       -2.09960
H         -1.89585        0.21375       -1.96295
H         -0.91837        1.49713        2.09969
H          0.99826        1.78478       -1.81953
H          2.21829        1.10218        1.16487
