19
Fe_3_PBE.log	Energy: -1079996.1538072
Fe        -0.00001        0.00010        0.00002
O         -1.43081       -0.05645       -1.47999
H         -2.33954        0.31824       -1.43012
O         -0.69566       -1.79109        0.74098
H         -0.34312       -2.27888        1.51974
O          1.30752       -1.01516       -1.22501
H          1.94734       -0.61592       -1.85737
O          1.43159        0.05691        1.47924
H          1.33634        0.46196        2.37116
O          0.69522        1.79136       -0.74092
H          0.34477        2.27740       -1.52147
O         -1.30783        1.01419        1.22562
H         -1.94597        0.61399        1.85909
H         -1.41302        1.99070        1.28910
H         -1.44391       -2.32128        0.38365
H         -1.33533       -0.46284       -2.37128
H          1.44074        2.32371       -0.38133
H          1.41067       -1.99185       -1.28899
H          2.34097       -0.31597        1.42786
