19
Fe_3_M06-L.log	Energy: -1080409.0047617
Fe         0.00002        0.00002       -0.00002
O         -0.97334       -1.33082        1.20951
H         -1.58830       -1.11829        1.93338
O          1.56493        0.05253        1.31532
H          2.38173        0.57463        1.22824
O          0.88780       -1.55190       -0.99264
H          0.54414       -2.01487       -1.77680
O          0.97333        1.33089       -1.20951
H          0.91199        2.30165       -1.17530
O         -1.56504       -0.05275       -1.31517
H         -2.38142       -0.57554       -1.22808
O         -0.88772        1.55201        0.99253
H         -0.54385        2.01528        1.77641
H         -1.73730        1.97333        0.77343
H          1.63944       -0.43913        2.15200
H         -0.91193       -2.30158        1.17543
H         -1.64016        0.43923       -2.15162
H          1.73725       -1.97341       -0.77338
H          1.58819        1.11840       -1.93348
