19
Fe_3_M06.log	Energy: -1080314.8026951
Fe        -0.00015       -0.00008        0.00001
O         -1.33519       -1.52782        0.06386
H         -2.30651       -1.45299        0.01375
O         -0.09262        0.16698        2.02082
H          0.39858        0.80306        2.57370
O          1.52546       -1.32731        0.17926
H          1.99954       -1.76931       -0.54980
O          1.33597        1.52704       -0.06407
H          1.12955        2.47638       -0.15185
O          0.09337       -0.16478       -2.02094
H         -0.39250       -0.80374       -2.57520
O         -1.52665        1.32602       -0.17892
H         -1.99641        1.77283        0.54990
H         -1.93076        1.63768       -1.01029
H         -0.63662       -0.37280        2.62436
H         -1.12771       -2.47704        0.15054
H          0.63288        0.38082       -2.62327
H          1.92388       -1.64523        1.01101
H          2.30716        1.45126       -0.01304
