19
Fe_3_MPW1PW91.log	Energy: -1080440.0824819
Fe         0.00000        0.00000       -0.00000
O          0.98325        1.05770        1.43084
H          0.61906        1.35231        2.28276
O         -0.61249        1.73610       -0.86241
H         -1.16462        1.82122       -1.65808
O          1.67089        0.01398       -1.15811
H          2.38032       -0.65076       -1.15483
O         -0.98330       -1.05770       -1.43081
H         -1.90547       -1.36295       -1.39053
O          0.61253       -1.73611        0.86237
H          1.16463       -1.82124        1.65806
O         -1.67088       -0.01399        1.15812
H         -2.38029        0.65079        1.15489
H         -1.90908       -0.68640        1.81867
H         -0.40764        2.63578       -0.55612
H          1.90542        1.36296        1.39062
H          0.40773       -2.63578        0.55604
H          1.90906        0.68636       -1.81870
H         -0.61916       -1.35231       -2.28274
