19
Fe_3_wB97X-D.log	Energy: -1080388.3213845
Fe         0.00001       -0.00001        0.00002
O         -1.40398        0.85567        1.19840
H         -2.34803        0.96333        0.99379
O          0.38722        1.81209       -0.84010
H          1.03631        1.99590       -1.53982
O          1.42074        0.35166        1.41322
H          1.67362       -0.24569        2.13706
O          1.40409       -0.85555       -1.19837
H          1.25493       -1.23362       -2.08127
O         -0.38717       -1.81226        0.83989
H         -1.03888       -1.99685        1.53676
O         -1.42089       -0.35162       -1.41306
H         -1.67440        0.24614       -2.13634
H         -1.97202       -1.14850       -1.49015
H         -0.04276        2.65454       -0.61622
H         -1.25494        1.23267        2.08177
H          0.04498       -2.65393        0.61851
H          1.97243        1.14822        1.48978
H          2.34840       -0.96195       -0.99421
