19
Fe_3_svwn.log	Energy: -1077893.4552504
Fe        -0.00000        0.00002        0.00002
O          0.40340        1.53961        1.21172
H          1.02008        1.53016        1.98241
O         -1.50601       -0.54828        1.19715
H         -2.10569       -1.32100        1.06444
O         -1.25373        1.15396       -1.04804
H         -1.02082        1.70885       -1.83046
O         -0.40352       -1.53957       -1.21172
H         -0.02247       -2.44794       -1.14856
O          1.50599        0.54792       -1.19732
H          2.10627        1.32017       -1.06459
O          1.25388       -1.15367        1.04817
H          1.02118       -1.70822        1.83089
H          2.21877       -1.27259        0.87737
H         -1.78532       -0.09611        2.02893
H          0.02245        2.44801        1.14842
H          1.78464        0.09584       -2.02937
H         -2.21869        1.27275       -0.87750
H         -1.02041       -1.53014       -1.98222
