19
Fe_3_B97D.log	Energy: -1080609.3369024
Fe         0.00006        0.00001        0.00006
O         -0.25300        1.73732       -1.08385
H          0.29990        2.03930       -1.83204
O          1.23579        1.00110        1.31441
H          1.68060        0.61857        2.09704
O         -1.63323        0.48768        1.16266
H         -2.56356        0.24256        0.98632
O          0.25335       -1.73672        1.08477
H          0.94814       -2.41082        0.94495
O         -1.23557       -1.00070       -1.31486
H         -1.67763       -0.61847       -2.09919
O          1.63252       -0.48869       -1.16325
H          2.56296       -0.24267       -0.98881
H          1.61848       -1.00884       -1.99146
H          1.48513        1.94583        1.26970
H         -0.94820        2.41100       -0.94409
H         -1.48742       -1.94471       -1.26898
H         -1.62012        1.00587        1.99212
H         -0.29876       -2.03763        1.83397
