19
Fe_3_OVWN5.log	Energy: -1082343.5036786
Fe         0.00000       -0.00000       -0.00004
O         -1.46369        0.91530       -1.23692
H         -2.41959        0.96595       -1.06623
O         -0.28148       -1.83760       -1.02660
H          0.17792       -2.67673       -0.85269
O          1.51289        0.54406       -1.38757
H          2.02963        1.36771       -1.39082
O          1.46374       -0.91565        1.23658
H          1.30932       -1.36585        2.08446
O          0.28160        1.83737        1.02698
H         -0.17976        2.67589        0.85526
O         -1.51301       -0.54346        1.38758
H         -2.03131       -1.36613        1.39002
H         -1.82291       -0.01827        2.14493
H         -0.89494       -2.00464       -1.76227
H         -1.30918        1.36563       -2.08471
H          0.89678        2.00469        1.76114
H          1.82414        0.01848       -2.14409
H          2.41954       -0.96688        1.06550
