19
Fe_3_M06-HF.log	Energy: -1080356.4689913
Fe         0.00003        0.00002        0.00004
O          1.49952       -0.88988       -1.04277
H          2.43845       -0.91717       -0.78473
O          0.32558        1.73228       -1.01039
H         -0.16387        2.56585       -0.89013
O         -1.33161       -0.57930       -1.42085
H         -1.83387       -1.41392       -1.42802
O         -1.50018        0.88958        1.04208
H         -1.40630        1.36622        1.88640
O         -0.32487       -1.73209        1.01092
H          0.16365       -2.56603        0.88948
O          1.33152        0.57936        1.42094
H          1.83295        1.41448        1.42871
H          1.58100        0.07007        2.21293
H          0.99827        1.87422       -1.70049
H          1.40489       -1.36560       -1.88752
H         -0.99613       -1.87357        1.70251
H         -1.58040       -0.07045       -2.21335
H         -2.43907        0.91560        0.78377
